 ------------------------
 #p pm6 iop(2/29=1) force
 ------------------------

 -----
 title
 -----
 Symbolic Z-matrix:
 Charge =  1 Multiplicity = 1

                         Standard orientation:
 ---------------------------------------------------------------------
 Center     Atomic      Atomic             Coordinates (Angstroms)
 Number     Number       Type             X           Y           Z
 ---------------------------------------------------------------------
      1          8           0        0.000116   -0.000961   -0.386565
      2          1           0       -0.852133   -0.506414   -0.154508
      3          1           0       -0.011062    0.990546   -0.156979
      4          1           0        0.864752   -0.486528   -0.157400
      5          8           0        2.215299   -1.163067    0.109962
      6          8           0       -2.116484   -1.334309    0.110015
      7          8           0       -0.099219    2.498544    0.109641
      8          1           0        2.474550   -1.636439    0.912211
      9          1           0        2.805806   -1.444806   -0.602584
     10          1           0       -2.658914   -1.321594    0.910294
     11          1           0       -2.652538   -1.706646   -0.603982
     12          1           0       -0.149682    3.150503   -0.603231
     13          1           0        0.181526    2.959722    0.911754
 ---------------------------------------------------------------------

 SCF Done:  E(RPM6) = -0.121676570968     A.U. after   12 cycles

 The electronic state is 1-A.
 Alpha  occ. eigenvalues --   -1.34262  -1.27323  -1.27316  -1.26414  -0.92750
 Alpha  occ. eigenvalues --   -0.92749  -0.86672  -0.86639  -0.86634  -0.74260
 Alpha  occ. eigenvalues --   -0.69913  -0.69907  -0.67890  -0.62297  -0.62145
 Alpha  occ. eigenvalues --   -0.62140
 Alpha virt. eigenvalues --   -0.11992  -0.03889  -0.03884   0.00546   0.04658
 Alpha virt. eigenvalues --    0.04661   0.05213   0.05218   0.05227

 Mulliken charges:
               1
     1  O   -0.460113
     2  H    0.409204
     3  H    0.409215
     4  H    0.409171
     5  O   -0.643721
     6  O   -0.643934
     7  O   -0.643686
     8  H    0.359662
     9  H    0.361598
    10  H    0.359748
    11  H    0.361587
    12  H    0.361610
    13  H    0.359659
 Sum of Mulliken charges =   1.00000

 Dipole moment (field-independent basis, Debye):
    X=              0.0073    Y=             -0.0040    Z=              0.7810  Tot=              0.7810
 N-N= 1.307672396830D+02 E-N=-1.524315788139D+02  KE=-8.076001824503D+01
 Leave Link  601 at Thu Aug 20 16:12:43 2015, MaxMem=    26214400 cpu:               0.0 elap:               0.1
 (Enter /home/lijunj/Gauss/gdv-h37p/gdv/l701.exe)
 Compute integral first derivatives.
 ... and contract with generalized density number  0.
 Leave Link  701 at Thu Aug 20 16:12:43 2015, MaxMem=    26214400 cpu:               0.0 elap:               0.1
 (Enter /home/lijunj/Gauss/gdv-h37p/gdv/l702.exe)
 L702 exits ... SP integral derivatives will be done elsewhere.
 Leave Link  702 at Thu Aug 20 16:12:44 2015, MaxMem=    26214400 cpu:               0.0 elap:               0.0
 (Enter /home/lijunj/Gauss/gdv-h37p/gdv/l703.exe)

 Normal termination of Gaussian DV at Thu Aug 20 16:12:44 2015.
