 ------------------------
 #p pm6 iop(2/29=1) force
 ------------------------

 -----
 title
 -----
 Symbolic Z-matrix:
 Charge =  1 Multiplicity = 1

                         Standard orientation:
 ---------------------------------------------------------------------
 Center     Atomic      Atomic             Coordinates (Angstroms)
 Number     Number       Type             X           Y           Z
 ---------------------------------------------------------------------
      1          8           0        1.271667   -0.033362   -0.061199
      2          1           0        1.735731    0.852367   -0.250387
      3          1           0        1.710964   -0.604974    0.657271
      4          1           0        0.256152    0.014238   -0.012725
      5          8           0       -1.276921   -0.016587    0.030906
      6          1           0       -1.853885    0.613334    0.483904
      7          1           0       -1.806936   -0.475376   -0.635723
 ---------------------------------------------------------------------

 SCF Done:  E(RPM6) =  0.108769260413     A.U. after   12 cycles

 The electronic state is 1-A.
 Alpha  occ. eigenvalues --   -1.41559  -1.30137  -0.98970  -0.98375  -0.89765
 Alpha  occ. eigenvalues --   -0.76942  -0.74007  -0.65577
 Alpha virt. eigenvalues --   -0.19364  -0.07655  -0.06855  -0.01127   0.02339

 Mulliken charges:
               1
     1  O   -0.362090
     2  H    0.420965
     3  H    0.423366
     4  H    0.421406
     5  O   -0.645656
     6  H    0.370187
     7  H    0.371822
 Sum of Mulliken charges =   1.00000

 Dipole moment (field-independent basis, Debye):
    X=              2.4235    Y=              1.0722    Z=              0.6735  Tot=              2.7343
 N-N= 4.968083320127D+01 E-N=-4.355175782188D+01  KE=-4.008571712683D+01
 Leave Link  601 at Thu Aug 20 16:12:50 2015, MaxMem=    26214400 cpu:               0.0 elap:               0.0
 (Enter /home/lijunj/Gauss/gdv-h37p/gdv/l701.exe)
 Compute integral first derivatives.
 ... and contract with generalized density number  0.
 Leave Link  701 at Thu Aug 20 16:12:51 2015, MaxMem=    26214400 cpu:               0.0 elap:               0.0
 (Enter /home/lijunj/Gauss/gdv-h37p/gdv/l702.exe)
 L702 exits ... SP integral derivatives will be done elsewhere.
 Leave Link  702 at Thu Aug 20 16:12:51 2015, MaxMem=    26214400 cpu:               0.0 elap:               0.0
 (Enter /home/lijunj/Gauss/gdv-h37p/gdv/l703.exe)

 Normal termination of Gaussian DV at Thu Aug 20 16:12:51 2015.
