 --------------------------------------
 #p b3lyp/6-31+g(d,p) iop(2/29=1) force
 --------------------------------------

 -----
 title
 -----
 Symbolic Z-matrix:
 Charge =  1 Multiplicity = 1

                         Standard orientation:
 ---------------------------------------------------------------------
 Center     Atomic      Atomic             Coordinates (Angstroms)
 Number     Number       Type             X           Y           Z
 ---------------------------------------------------------------------
      1          8           0        1.271667   -0.033362   -0.061199
      2          1           0        1.735731    0.852367   -0.250387
      3          1           0        1.710964   -0.604974    0.657271
      4          1           0        0.256152    0.014238   -0.012725
      5          8           0       -1.276921   -0.016587    0.030906
      6          1           0       -1.853885    0.613334    0.483904
      7          1           0       -1.806936   -0.475376   -0.635723
 ---------------------------------------------------------------------

 SCF Done:  E(RB3LYP) =  -153.193007577     A.U. after   11 cycles

 The electronic state is 1-A.
 Alpha  occ. eigenvalues --  -19.51730 -19.39915  -1.36434  -1.24859  -0.86376
 Alpha  occ. eigenvalues --   -0.86293  -0.76733  -0.67081  -0.64153  -0.55244
 Alpha virt. eigenvalues --   -0.22720  -0.14985  -0.13660  -0.07978  -0.05405
 Alpha virt. eigenvalues --   -0.05231  -0.04518  -0.02132   0.02419   0.04330
 Alpha virt. eigenvalues --    0.05522   0.06136   0.10037   0.62169   0.65161

 Mulliken charges:
               1
     1  O   -0.576240
     2  H    0.475623
     3  H    0.475434
     4  H    0.544953
     5  O   -0.766712
     6  H    0.423541
     7  H    0.423402
 Sum of Mulliken charges =   1.00000

 Dipole moment (field-independent basis, Debye):
    X=              1.9678    Y=              0.9861    Z=              0.6280  Tot=              2.2889
 Quadrupole moment (field-independent basis, Debye-Ang):
   XX=              5.3632   YY=             -9.2311   ZZ=            -10.9645
   XY=              0.4899   XZ=              2.6369   YZ=             -0.0326

 Normal termination of Gaussian DV at Thu Aug 20 16:12:50 2015.
