 --------------------------------------
 #p b3lyp/6-31+g(d,p) iop(2/29=1) force
 --------------------------------------

 -----
 title
 -----
 Symbolic Z-matrix:
 Charge =  1 Multiplicity = 1

                         Standard orientation:
 ---------------------------------------------------------------------
 Center     Atomic      Atomic             Coordinates (Angstroms)
 Number     Number       Type             X           Y           Z
 ---------------------------------------------------------------------
      1          8           0        1.271615   -0.033258   -0.061066
      2          1           0        0.256387    0.014522   -0.009189
      3          1           0        1.735356    0.852523   -0.251482
      4          1           0        1.713022   -0.605296    0.655746
      5          8           0       -1.277046   -0.016264    0.030810
      6          1           0       -1.856326    0.612569    0.482298
      7          1           0       -1.804994   -0.478136   -0.635318
 ---------------------------------------------------------------------

 SCF Done:  E(RB3LYP) =  -153.192989698     A.U. after   11 cycles

 The electronic state is 1-A.
 Alpha  occ. eigenvalues --  -19.51735 -19.39906  -1.36437  -1.24850  -0.86379
 Alpha  occ. eigenvalues --   -0.86295  -0.76728  -0.67078  -0.64153  -0.55233
 Alpha virt. eigenvalues --   -0.22723  -0.14981  -0.13664  -0.07977  -0.05403
 Alpha virt. eigenvalues --   -0.05233  -0.04511  -0.02144   0.02428   0.04326
 Alpha virt. eigenvalues --    0.05531   0.06139   0.10032   0.62171   0.65139

 Mulliken charges:
               1
     1  O   -0.576191
     2  H    0.544919
     3  H    0.475667
     4  H    0.475450
     5  O   -0.766771
     6  H    0.423656
     7  H    0.423270
 Sum of Mulliken charges =   1.00000

 Dipole moment (field-independent basis, Debye):
    X=              1.9730    Y=              0.9784    Z=              0.6268  Tot=              2.2897
 Quadrupole moment (field-independent basis, Debye-Ang):
   XX=              5.3818   YY=             -9.2239   ZZ=            -10.9758
   XY=              0.4933   XZ=              2.6277   YZ=             -0.0325

 Normal termination of Gaussian DV at Thu Aug 20 16:12:56 2015.
