 ------------------------
 #p pm6 iop(2/29=1) force
 ------------------------

 -----
 title
 -----
 Symbolic Z-matrix:
 Charge =  1 Multiplicity = 1

                         Standard orientation:
 ---------------------------------------------------------------------
 Center     Atomic      Atomic             Coordinates (Angstroms)
 Number     Number       Type             X           Y           Z
 ---------------------------------------------------------------------
      1          8           0        1.271615   -0.033258   -0.061066
      2          1           0        0.256387    0.014522   -0.009189
      3          1           0        1.735356    0.852523   -0.251482
      4          1           0        1.713022   -0.605296    0.655746
      5          8           0       -1.277046   -0.016264    0.030810
      6          1           0       -1.856326    0.612569    0.482298
      7          1           0       -1.804994   -0.478136   -0.635318
 ---------------------------------------------------------------------

 SCF Done:  E(RPM6) =  0.108788643775     A.U. after   12 cycles

 The electronic state is 1-A.
 Alpha  occ. eigenvalues --   -1.41561  -1.30126  -0.98972  -0.98376  -0.89761
 Alpha  occ. eigenvalues --   -0.76939  -0.74005  -0.65568
 Alpha virt. eigenvalues --   -0.19367  -0.07652  -0.06858  -0.01122   0.02349

 Mulliken charges:
               1
     1  O   -0.362035
     2  H    0.421436
     3  H    0.421067
     4  H    0.423341
     5  O   -0.645909
     6  H    0.370305
     7  H    0.371794
 Sum of Mulliken charges =   1.00000

 Dipole moment (field-independent basis, Debye):
    X=              2.4291    Y=              1.0643    Z=              0.6734  Tot=              2.7362
 N-N= 4.967977004011D+01 E-N=-4.354976923769D+01  KE=-4.008603718662D+01
 Leave Link  601 at Thu Aug 20 16:12:56 2015, MaxMem=    26214400 cpu:               0.0 elap:               0.0
 (Enter /home/lijunj/Gauss/gdv-h37p/gdv/l701.exe)
 Compute integral first derivatives.
 ... and contract with generalized density number  0.
 Leave Link  701 at Thu Aug 20 16:12:56 2015, MaxMem=    26214400 cpu:               0.1 elap:               0.1
 (Enter /home/lijunj/Gauss/gdv-h37p/gdv/l702.exe)
 L702 exits ... SP integral derivatives will be done elsewhere.
 Leave Link  702 at Thu Aug 20 16:12:56 2015, MaxMem=    26214400 cpu:               0.0 elap:               0.0
 (Enter /home/lijunj/Gauss/gdv-h37p/gdv/l703.exe)

 Normal termination of Gaussian DV at Thu Aug 20 16:12:57 2015.
