 --------------------------------------
 #p b3lyp/6-31+g(d,p) iop(2/29=1) force
 --------------------------------------

 -----
 title
 -----
 Symbolic Z-matrix:
 Charge =  1 Multiplicity = 1

                         Standard orientation:
 ---------------------------------------------------------------------
 Center     Atomic      Atomic             Coordinates (Angstroms)
 Number     Number       Type             X           Y           Z
 ---------------------------------------------------------------------
      1          8           0        1.271593   -0.033328   -0.061175
      2          1           0        1.711126   -0.605182    0.656778
      3          1           0        0.256096    0.014368   -0.012061
      4          1           0        1.735851    0.852433   -0.250330
      5          8           0       -1.276910   -0.016713    0.030855
      6          1           0       -1.806620   -0.472950   -0.637754
      7          1           0       -1.853923    0.611659    0.485928
 ---------------------------------------------------------------------

 SCF Done:  E(RB3LYP) =  -153.193012527     A.U. after   11 cycles

 The electronic state is 1-A.
 Alpha  occ. eigenvalues --  -19.51730 -19.39916  -1.36433  -1.24860  -0.86376
 Alpha  occ. eigenvalues --   -0.86292  -0.76736  -0.67079  -0.64154  -0.55245
 Alpha virt. eigenvalues --   -0.22719  -0.14985  -0.13659  -0.07978  -0.05403
 Alpha virt. eigenvalues --   -0.05231  -0.04519  -0.02133   0.02427   0.04331
 Alpha virt. eigenvalues --    0.05519   0.06128   0.10036   0.62170   0.65160

 Mulliken charges:
               1
     1  O   -0.576258
     2  H    0.475399
     3  H    0.544952
     4  H    0.475647
     5  O   -0.766691
     6  H    0.423400
     7  H    0.423551
 Sum of Mulliken charges =   1.00000

 Dipole moment (field-independent basis, Debye):
    X=              1.9686    Y=              0.9880    Z=              0.6283  Tot=              2.2905
 Quadrupole moment (field-independent basis, Debye-Ang):
   XX=              5.3640   YY=             -9.2435   ZZ=            -10.9525
   XY=              0.4854   XZ=              2.6342   YZ=             -0.0325

 Normal termination of Gaussian DV at Thu Aug 20 16:13:02 2015.
