 ------------------------
 #p pm6 iop(2/29=1) force
 ------------------------

 -----
 title
 -----
 Symbolic Z-matrix:
 Charge =  1 Multiplicity = 1

                         Standard orientation:
 ---------------------------------------------------------------------
 Center     Atomic      Atomic             Coordinates (Angstroms)
 Number     Number       Type             X           Y           Z
 ---------------------------------------------------------------------
      1          8           0        1.271593   -0.033328   -0.061175
      2          1           0        1.711126   -0.605182    0.656778
      3          1           0        0.256096    0.014368   -0.012061
      4          1           0        1.735851    0.852433   -0.250330
      5          8           0       -1.276910   -0.016713    0.030855
      6          1           0       -1.806620   -0.472950   -0.637754
      7          1           0       -1.853923    0.611659    0.485928
 ---------------------------------------------------------------------

 SCF Done:  E(RPM6) =  0.108766981522     A.U. after   12 cycles

 The electronic state is 1-A.
 Alpha  occ. eigenvalues --   -1.41559  -1.30138  -0.98970  -0.98374  -0.89768
 Alpha  occ. eigenvalues --   -0.76941  -0.74007  -0.65578
 Alpha virt. eigenvalues --   -0.19364  -0.07655  -0.06855  -0.01127   0.02340

 Mulliken charges:
               1
     1  O   -0.362104
     2  H    0.423295
     3  H    0.421403
     4  H    0.421011
     5  O   -0.645623
     6  H    0.371830
     7  H    0.370189
 Sum of Mulliken charges =   1.00000

 Dipole moment (field-independent basis, Debye):
    X=              2.4242    Y=              1.0745    Z=              0.6740  Tot=              2.7359
 N-N= 4.968116007384D+01 E-N=-4.355239870865D+01  KE=-4.008569252937D+01
 Leave Link  601 at Thu Aug 20 16:13:02 2015, MaxMem=    26214400 cpu:               0.0 elap:               0.0
 (Enter /home/lijunj/Gauss/gdv-h37p/gdv/l701.exe)
 Compute integral first derivatives.
 ... and contract with generalized density number  0.
 Leave Link  701 at Thu Aug 20 16:13:02 2015, MaxMem=    26214400 cpu:               0.0 elap:               0.0
 (Enter /home/lijunj/Gauss/gdv-h37p/gdv/l702.exe)
 L702 exits ... SP integral derivatives will be done elsewhere.
 Leave Link  702 at Thu Aug 20 16:13:02 2015, MaxMem=    26214400 cpu:               0.0 elap:               0.0
 (Enter /home/lijunj/Gauss/gdv-h37p/gdv/l703.exe)

 Normal termination of Gaussian DV at Thu Aug 20 16:13:02 2015.
