 --------------------------------------
 #p b3lyp/6-31+g(d,p) iop(2/29=1) force
 --------------------------------------

 -----
 title
 -----
 Symbolic Z-matrix:
 Charge =  1 Multiplicity = 1

                         Standard orientation:
 ---------------------------------------------------------------------
 Center     Atomic      Atomic             Coordinates (Angstroms)
 Number     Number       Type             X           Y           Z
 ---------------------------------------------------------------------
      1          8           0        0.000002    0.000005   -0.062801
      2          1           0       -0.139948    0.981355    0.167474
      3          1           0        0.919974   -0.369520    0.167469
      4          1           0       -0.780044   -0.611872    0.167463
 ---------------------------------------------------------------------

 SCF Done:  E(RB3LYP) =  -76.7045157805     A.U. after    9 cycles

 The electronic state is 1-A.
 Alpha  occ. eigenvalues --  -19.59056  -1.42777  -0.92218  -0.92217  -0.72800
 Alpha virt. eigenvalues --   -0.28329  -0.17769  -0.17765  -0.09174  -0.07458
 Alpha virt. eigenvalues --   -0.07457  -0.02494   0.56418   0.56421   0.65120
 Alpha virt. eigenvalues --    0.73926   0.73931   0.76354   0.92985   1.08103

 Mulliken charges:
               1
     1  O   -0.502640
     2  H    0.500853
     3  H    0.500898
     4  H    0.500889
 Sum of Mulliken charges =   1.00000

 Dipole moment (field-independent basis, Debye):
    X=              0.0000    Y=             -0.0002    Z=              1.3311  Tot=              1.3311
 Quadrupole moment (field-independent basis, Debye-Ang):
   XX=             -2.1530   YY=             -2.1544   ZZ=             -6.5652
   XY=              0.0000   XZ=              0.0000   YZ=              0.0000

 Normal termination of Gaussian DV at Thu Aug 20 16:13:04 2015.
