 ------------------------
 #p pm6 iop(2/29=1) force
 ------------------------

 -----
 title
 -----
 Symbolic Z-matrix:
 Charge =  1 Multiplicity = 1

                         Standard orientation:
 ---------------------------------------------------------------------
 Center     Atomic      Atomic             Coordinates (Angstroms)
 Number     Number       Type             X           Y           Z
 ---------------------------------------------------------------------
      1          8           0        0.000002    0.000005   -0.062801
      2          1           0       -0.139948    0.981355    0.167474
      3          1           0        0.919974   -0.369520    0.167469
      4          1           0       -0.780044   -0.611872    0.167463
 ---------------------------------------------------------------------

 SCF Done:  E(RPM6) =  0.232014567932     A.U. after   12 cycles

 The electronic state is 1-A.
 Alpha  occ. eigenvalues --   -1.45904  -1.02338  -1.02337  -0.80225
 Alpha virt. eigenvalues --   -0.23826  -0.10537  -0.10535

 Mulliken charges:
               1
     1  O   -0.308701
     2  H    0.436190
     3  H    0.436263
     4  H    0.436248
 Sum of Mulliken charges =   1.00000

 Dipole moment (field-independent basis, Debye):
    X=              0.0000    Y=             -0.0003    Z=              1.4073  Tot=              1.4073
 N-N= 1.984614240094D+01 E-N=-1.087609021550D+01  KE=-1.973610217555D+01
 Leave Link  601 at Thu Aug 20 16:13:05 2015, MaxMem=    26214400 cpu:               0.0 elap:               0.0
 (Enter /home/lijunj/Gauss/gdv-h37p/gdv/l701.exe)
 Compute integral first derivatives.
 ... and contract with generalized density number  0.
 Leave Link  701 at Thu Aug 20 16:13:05 2015, MaxMem=    26214400 cpu:               0.0 elap:               0.1
 (Enter /home/lijunj/Gauss/gdv-h37p/gdv/l702.exe)
 L702 exits ... SP integral derivatives will be done elsewhere.
 Leave Link  702 at Thu Aug 20 16:13:05 2015, MaxMem=    26214400 cpu:               0.0 elap:               0.0
 (Enter /home/lijunj/Gauss/gdv-h37p/gdv/l703.exe)

 Normal termination of Gaussian DV at Thu Aug 20 16:13:05 2015.
